<?xml version="1.0" encoding="UTF-8"?>

<!-- generated on 10.12.2016 11:00:17 by SUMO gui Version 0.27.1
<?xml version="1.0" encoding="UTF-8"?>

<configuration xmlns:xsi="http://www.w3.org/2001/XMLSchema-instance" xsi:noNamespaceSchemaLocation="http://sumo.dlr.de/xsd/sumo-gui.exeConfiguration.xsd">

    <input>
        <net-file value="C:\Users\HP\Documents\DIT\Masterarbeit\Simulation\int170\int170-network.net.xml"/>
        <route-files value="C:\Users\HP\Documents\DIT\Masterarbeit\Simulation\int170\int170-routes.rou.xml"/>
    </input>

    <output>
        <queue-output value="C:\Users\HP\Documents\DIT\Masterarbeit\Simulation\int170\int170-queues.xml"/>
    </output>

    <time>
        <begin value="0"/>
        <end value="4900"/>
    </time>

    <processing>
        <time-to-teleport value="-1"/>
    </processing>

</configuration>
-->

<queue-export xmlns:xsi="http://www.w3.org/2001/XMLSchema-instance" xsi:noNamespaceSchemaLocation="http://sumo.dlr.de/xsd/queue_file.xsd">
</queue-export>
